Particles inside

4000 atoms
1 atom types
0 10 xlo xhi 
0 10 ylo yhi
0 10 zlo zhi

Masses

1 1.0

Atoms

1  1 1.00 1.00 1.00
2  1 1.00 1.00 1.80
3  1 1.00 1.00 2.60
4  1 1.00 1.00 3.40
5  1 1.00 1.00 4.20
6  1 1.00 1.00 5.00
7  1 1.00 1.00 5.80
8  1 1.00 1.00 6.60
9  1 1.00 1.00 7.40
10  1 1.00 1.00 8.20
11  1 1.00 1.00 9.00
12  1 1.00 1.00 9.80
13  1 1.00 1.46 1.00
14  1 1.00 1.46 1.80
15  1 1.00 1.46 2.60
16  1 1.00 1.46 3.40
17  1 1.00 1.46 4.20
18  1 1.00 1.46 5.00
19  1 1.00 1.46 5.80
20  1 1.00 1.46 6.60
21  1 1.00 1.46 7.40
22  1 1.00 1.46 8.20
23  1 1.00 1.46 9.00
24  1 1.00 1.46 9.80
25  1 1.00 1.92 1.00
26  1 1.00 1.92 1.80
27  1 1.00 1.92 2.60
28  1 1.00 1.92 3.40
29  1 1.00 1.92 4.20
30  1 1.00 1.92 5.00
31  1 1.00 1.92 5.80
32  1 1.00 1.92 6.60
33  1 1.00 1.92 7.40
34  1 1.00 1.92 8.20
35  1 1.00 1.92 9.00
36  1 1.00 1.92 9.80
37  1 1.00 2.38 1.00
38  1 1.00 2.38 1.80
39  1 1.00 2.38 2.60
40  1 1.00 2.38 3.40
41  1 1.00 2.38 4.20
42  1 1.00 2.38 5.00
43  1 1.00 2.38 5.80
44  1 1.00 2.38 6.60
45  1 1.00 2.38 7.40
46  1 1.00 2.38 8.20
47  1 1.00 2.38 9.00
48  1 1.00 2.38 9.80
49  1 1.00 2.84 1.00
50  1 1.00 2.84 1.80
51  1 1.00 2.84 2.60
52  1 1.00 2.84 3.40
53  1 1.00 2.84 4.20
54  1 1.00 2.84 5.00
55  1 1.00 2.84 5.80
56  1 1.00 2.84 6.60
57  1 1.00 2.84 7.40
58  1 1.00 2.84 8.20
59  1 1.00 2.84 9.00
60  1 1.00 2.84 9.80
61  1 1.00 3.30 1.00
62  1 1.00 3.30 1.80
63  1 1.00 3.30 2.60
64  1 1.00 3.30 3.40
65  1 1.00 3.30 4.20
66  1 1.00 3.30 5.00
67  1 1.00 3.30 5.80
68  1 1.00 3.30 6.60
69  1 1.00 3.30 7.40
70  1 1.00 3.30 8.20
71  1 1.00 3.30 9.00
72  1 1.00 3.30 9.80
73  1 1.00 3.76 1.00
74  1 1.00 3.76 1.80
75  1 1.00 3.76 2.60
76  1 1.00 3.76 3.40
77  1 1.00 3.76 4.20
78  1 1.00 3.76 5.00
79  1 1.00 3.76 5.80
80  1 1.00 3.76 6.60
81  1 1.00 3.76 7.40
82  1 1.00 3.76 8.20
83  1 1.00 3.76 9.00
84  1 1.00 3.76 9.80
85  1 1.00 4.22 1.00
86  1 1.00 4.22 1.80
87  1 1.00 4.22 2.60
88  1 1.00 4.22 3.40
89  1 1.00 4.22 4.20
90  1 1.00 4.22 5.00
91  1 1.00 4.22 5.80
92  1 1.00 4.22 6.60
93  1 1.00 4.22 7.40
94  1 1.00 4.22 8.20
95  1 1.00 4.22 9.00
96  1 1.00 4.22 9.80
97  1 1.00 4.68 1.00
98  1 1.00 4.68 1.80
99  1 1.00 4.68 2.60
100  1 1.00 4.68 3.40
101  1 1.00 4.68 4.20
102  1 1.00 4.68 5.00
103  1 1.00 4.68 5.80
104  1 1.00 4.68 6.60
105  1 1.00 4.68 7.40
106  1 1.00 4.68 8.20
107  1 1.00 4.68 9.00
108  1 1.00 4.68 9.80
109  1 1.00 5.14 1.00
110  1 1.00 5.14 1.80
111  1 1.00 5.14 2.60
112  1 1.00 5.14 3.40
113  1 1.00 5.14 4.20
114  1 1.00 5.14 5.00
115  1 1.00 5.14 5.80
116  1 1.00 5.14 6.60
117  1 1.00 5.14 7.40
118  1 1.00 5.14 8.20
119  1 1.00 5.14 9.00
120  1 1.00 5.14 9.80
121  1 1.00 5.60 1.00
122  1 1.00 5.60 1.80
123  1 1.00 5.60 2.60
124  1 1.00 5.60 3.40
125  1 1.00 5.60 4.20
126  1 1.00 5.60 5.00
127  1 1.00 5.60 5.80
128  1 1.00 5.60 6.60
129  1 1.00 5.60 7.40
130  1 1.00 5.60 8.20
131  1 1.00 5.60 9.00
132  1 1.00 5.60 9.80
133  1 1.00 6.06 1.00
134  1 1.00 6.06 1.80
135  1 1.00 6.06 2.60
136  1 1.00 6.06 3.40
137  1 1.00 6.06 4.20
138  1 1.00 6.06 5.00
139  1 1.00 6.06 5.80
140  1 1.00 6.06 6.60
141  1 1.00 6.06 7.40
142  1 1.00 6.06 8.20
143  1 1.00 6.06 9.00
144  1 1.00 6.06 9.80
145  1 1.00 6.52 1.00
146  1 1.00 6.52 1.80
147  1 1.00 6.52 2.60
148  1 1.00 6.52 3.40
149  1 1.00 6.52 4.20
150  1 1.00 6.52 5.00
151  1 1.00 6.52 5.80
152  1 1.00 6.52 6.60
153  1 1.00 6.52 7.40
154  1 1.00 6.52 8.20
155  1 1.00 6.52 9.00
156  1 1.00 6.52 9.80
157  1 1.00 6.98 1.00
158  1 1.00 6.98 1.80
159  1 1.00 6.98 2.60
160  1 1.00 6.98 3.40
161  1 1.00 6.98 4.20
162  1 1.00 6.98 5.00
163  1 1.00 6.98 5.80
164  1 1.00 6.98 6.60
165  1 1.00 6.98 7.40
166  1 1.00 6.98 8.20
167  1 1.00 6.98 9.00
168  1 1.00 6.98 9.80
169  1 1.00 7.44 1.00
170  1 1.00 7.44 1.80
171  1 1.00 7.44 2.60
172  1 1.00 7.44 3.40
173  1 1.00 7.44 4.20
174  1 1.00 7.44 5.00
175  1 1.00 7.44 5.80
176  1 1.00 7.44 6.60
177  1 1.00 7.44 7.40
178  1 1.00 7.44 8.20
179  1 1.00 7.44 9.00
180  1 1.00 7.44 9.80
181  1 1.00 7.90 1.00
182  1 1.00 7.90 1.80
183  1 1.00 7.90 2.60
184  1 1.00 7.90 3.40
185  1 1.00 7.90 4.20
186  1 1.00 7.90 5.00
187  1 1.00 7.90 5.80
188  1 1.00 7.90 6.60
189  1 1.00 7.90 7.40
190  1 1.00 7.90 8.20
191  1 1.00 7.90 9.00
192  1 1.00 7.90 9.80
193  1 1.00 8.36 1.00
194  1 1.00 8.36 1.80
195  1 1.00 8.36 2.60
196  1 1.00 8.36 3.40
197  1 1.00 8.36 4.20
198  1 1.00 8.36 5.00
199  1 1.00 8.36 5.80
200  1 1.00 8.36 6.60
201  1 1.00 8.36 7.40
202  1 1.00 8.36 8.20
203  1 1.00 8.36 9.00
204  1 1.00 8.36 9.80
205  1 1.00 8.82 1.00
206  1 1.00 8.82 1.80
207  1 1.00 8.82 2.60
208  1 1.00 8.82 3.40
209  1 1.00 8.82 4.20
210  1 1.00 8.82 5.00
211  1 1.00 8.82 5.80
212  1 1.00 8.82 6.60
213  1 1.00 8.82 7.40
214  1 1.00 8.82 8.20
215  1 1.00 8.82 9.00
216  1 1.00 8.82 9.80
217  1 1.00 9.28 1.00
218  1 1.00 9.28 1.80
219  1 1.00 9.28 2.60
220  1 1.00 9.28 3.40
221  1 1.00 9.28 4.20
222  1 1.00 9.28 5.00
223  1 1.00 9.28 5.80
224  1 1.00 9.28 6.60
225  1 1.00 9.28 7.40
226  1 1.00 9.28 8.20
227  1 1.00 9.28 9.00
228  1 1.00 9.28 9.80
229  1 1.00 9.74 1.00
230  1 1.00 9.74 1.80
231  1 1.00 9.74 2.60
232  1 1.00 9.74 3.40
233  1 1.00 9.74 4.20
234  1 1.00 9.74 5.00
235  1 1.00 9.74 5.80
236  1 1.00 9.74 6.60
237  1 1.00 9.74 7.40
238  1 1.00 9.74 8.20
239  1 1.00 9.74 9.00
240  1 1.00 9.74 9.80
241  1 1.50 1.00 1.00
242  1 1.50 1.00 1.80
243  1 1.50 1.00 2.60
244  1 1.50 1.00 3.40
245  1 1.50 1.00 4.20
246  1 1.50 1.00 5.00
247  1 1.50 1.00 5.80
248  1 1.50 1.00 6.60
249  1 1.50 1.00 7.40
250  1 1.50 1.00 8.20
251  1 1.50 1.00 9.00
252  1 1.50 1.00 9.80
253  1 1.50 1.46 1.00
254  1 1.50 1.46 1.80
255  1 1.50 1.46 2.60
256  1 1.50 1.46 3.40
257  1 1.50 1.46 4.20
258  1 1.50 1.46 5.00
259  1 1.50 1.46 5.80
260  1 1.50 1.46 6.60
261  1 1.50 1.46 7.40
262  1 1.50 1.46 8.20
263  1 1.50 1.46 9.00
264  1 1.50 1.46 9.80
265  1 1.50 1.92 1.00
266  1 1.50 1.92 1.80
267  1 1.50 1.92 2.60
268  1 1.50 1.92 3.40
269  1 1.50 1.92 4.20
270  1 1.50 1.92 5.00
271  1 1.50 1.92 5.80
272  1 1.50 1.92 6.60
273  1 1.50 1.92 7.40
274  1 1.50 1.92 8.20
275  1 1.50 1.92 9.00
276  1 1.50 1.92 9.80
277  1 1.50 2.38 1.00
278  1 1.50 2.38 1.80
279  1 1.50 2.38 2.60
280  1 1.50 2.38 3.40
281  1 1.50 2.38 4.20
282  1 1.50 2.38 5.00
283  1 1.50 2.38 5.80
284  1 1.50 2.38 6.60
285  1 1.50 2.38 7.40
286  1 1.50 2.38 8.20
287  1 1.50 2.38 9.00
288  1 1.50 2.38 9.80
289  1 1.50 2.84 1.00
290  1 1.50 2.84 1.80
291  1 1.50 2.84 2.60
292  1 1.50 2.84 3.40
293  1 1.50 2.84 4.20
294  1 1.50 2.84 5.00
295  1 1.50 2.84 5.80
296  1 1.50 2.84 6.60
297  1 1.50 2.84 7.40
298  1 1.50 2.84 8.20
299  1 1.50 2.84 9.00
300  1 1.50 2.84 9.80
301  1 1.50 3.30 1.00
302  1 1.50 3.30 1.80
303  1 1.50 3.30 2.60
304  1 1.50 3.30 3.40
305  1 1.50 3.30 4.20
306  1 1.50 3.30 5.00
307  1 1.50 3.30 5.80
308  1 1.50 3.30 6.60
309  1 1.50 3.30 7.40
310  1 1.50 3.30 8.20
311  1 1.50 3.30 9.00
312  1 1.50 3.30 9.80
313  1 1.50 3.76 1.00
314  1 1.50 3.76 1.80
315  1 1.50 3.76 2.60
316  1 1.50 3.76 3.40
317  1 1.50 3.76 4.20
318  1 1.50 3.76 5.00
319  1 1.50 3.76 5.80
320  1 1.50 3.76 6.60
321  1 1.50 3.76 7.40
322  1 1.50 3.76 8.20
323  1 1.50 3.76 9.00
324  1 1.50 3.76 9.80
325  1 1.50 4.22 1.00
326  1 1.50 4.22 1.80
327  1 1.50 4.22 2.60
328  1 1.50 4.22 3.40
329  1 1.50 4.22 4.20
330  1 1.50 4.22 5.00
331  1 1.50 4.22 5.80
332  1 1.50 4.22 6.60
333  1 1.50 4.22 7.40
334  1 1.50 4.22 8.20
335  1 1.50 4.22 9.00
336  1 1.50 4.22 9.80
337  1 1.50 4.68 1.00
338  1 1.50 4.68 1.80
339  1 1.50 4.68 2.60
340  1 1.50 4.68 3.40
341  1 1.50 4.68 4.20
342  1 1.50 4.68 5.00
343  1 1.50 4.68 5.80
344  1 1.50 4.68 6.60
345  1 1.50 4.68 7.40
346  1 1.50 4.68 8.20
347  1 1.50 4.68 9.00
348  1 1.50 4.68 9.80
349  1 1.50 5.14 1.00
350  1 1.50 5.14 1.80
351  1 1.50 5.14 2.60
352  1 1.50 5.14 3.40
353  1 1.50 5.14 4.20
354  1 1.50 5.14 5.00
355  1 1.50 5.14 5.80
356  1 1.50 5.14 6.60
357  1 1.50 5.14 7.40
358  1 1.50 5.14 8.20
359  1 1.50 5.14 9.00
360  1 1.50 5.14 9.80
361  1 1.50 5.60 1.00
362  1 1.50 5.60 1.80
363  1 1.50 5.60 2.60
364  1 1.50 5.60 3.40
365  1 1.50 5.60 4.20
366  1 1.50 5.60 5.00
367  1 1.50 5.60 5.80
368  1 1.50 5.60 6.60
369  1 1.50 5.60 7.40
370  1 1.50 5.60 8.20
371  1 1.50 5.60 9.00
372  1 1.50 5.60 9.80
373  1 1.50 6.06 1.00
374  1 1.50 6.06 1.80
375  1 1.50 6.06 2.60
376  1 1.50 6.06 3.40
377  1 1.50 6.06 4.20
378  1 1.50 6.06 5.00
379  1 1.50 6.06 5.80
380  1 1.50 6.06 6.60
381  1 1.50 6.06 7.40
382  1 1.50 6.06 8.20
383  1 1.50 6.06 9.00
384  1 1.50 6.06 9.80
385  1 1.50 6.52 1.00
386  1 1.50 6.52 1.80
387  1 1.50 6.52 2.60
388  1 1.50 6.52 3.40
389  1 1.50 6.52 4.20
390  1 1.50 6.52 5.00
391  1 1.50 6.52 5.80
392  1 1.50 6.52 6.60
393  1 1.50 6.52 7.40
394  1 1.50 6.52 8.20
395  1 1.50 6.52 9.00
396  1 1.50 6.52 9.80
397  1 1.50 6.98 1.00
398  1 1.50 6.98 1.80
399  1 1.50 6.98 2.60
400  1 1.50 6.98 3.40
401  1 1.50 6.98 4.20
402  1 1.50 6.98 5.00
403  1 1.50 6.98 5.80
404  1 1.50 6.98 6.60
405  1 1.50 6.98 7.40
406  1 1.50 6.98 8.20
407  1 1.50 6.98 9.00
408  1 1.50 6.98 9.80
409  1 1.50 7.44 1.00
410  1 1.50 7.44 1.80
411  1 1.50 7.44 2.60
412  1 1.50 7.44 3.40
413  1 1.50 7.44 4.20
414  1 1.50 7.44 5.00
415  1 1.50 7.44 5.80
416  1 1.50 7.44 6.60
417  1 1.50 7.44 7.40
418  1 1.50 7.44 8.20
419  1 1.50 7.44 9.00
420  1 1.50 7.44 9.80
421  1 1.50 7.90 1.00
422  1 1.50 7.90 1.80
423  1 1.50 7.90 2.60
424  1 1.50 7.90 3.40
425  1 1.50 7.90 4.20
426  1 1.50 7.90 5.00
427  1 1.50 7.90 5.80
428  1 1.50 7.90 6.60
429  1 1.50 7.90 7.40
430  1 1.50 7.90 8.20
431  1 1.50 7.90 9.00
432  1 1.50 7.90 9.80
433  1 1.50 8.36 1.00
434  1 1.50 8.36 1.80
435  1 1.50 8.36 2.60
436  1 1.50 8.36 3.40
437  1 1.50 8.36 4.20
438  1 1.50 8.36 5.00
439  1 1.50 8.36 5.80
440  1 1.50 8.36 6.60
441  1 1.50 8.36 7.40
442  1 1.50 8.36 8.20
443  1 1.50 8.36 9.00
444  1 1.50 8.36 9.80
445  1 1.50 8.82 1.00
446  1 1.50 8.82 1.80
447  1 1.50 8.82 2.60
448  1 1.50 8.82 3.40
449  1 1.50 8.82 4.20
450  1 1.50 8.82 5.00
451  1 1.50 8.82 5.80
452  1 1.50 8.82 6.60
453  1 1.50 8.82 7.40
454  1 1.50 8.82 8.20
455  1 1.50 8.82 9.00
456  1 1.50 8.82 9.80
457  1 1.50 9.28 1.00
458  1 1.50 9.28 1.80
459  1 1.50 9.28 2.60
460  1 1.50 9.28 3.40
461  1 1.50 9.28 4.20
462  1 1.50 9.28 5.00
463  1 1.50 9.28 5.80
464  1 1.50 9.28 6.60
465  1 1.50 9.28 7.40
466  1 1.50 9.28 8.20
467  1 1.50 9.28 9.00
468  1 1.50 9.28 9.80
469  1 1.50 9.74 1.00
470  1 1.50 9.74 1.80
471  1 1.50 9.74 2.60
472  1 1.50 9.74 3.40
473  1 1.50 9.74 4.20
474  1 1.50 9.74 5.00
475  1 1.50 9.74 5.80
476  1 1.50 9.74 6.60
477  1 1.50 9.74 7.40
478  1 1.50 9.74 8.20
479  1 1.50 9.74 9.00
480  1 1.50 9.74 9.80
481  1 2.00 1.00 1.00
482  1 2.00 1.00 1.80
483  1 2.00 1.00 2.60
484  1 2.00 1.00 3.40
485  1 2.00 1.00 4.20
486  1 2.00 1.00 5.00
487  1 2.00 1.00 5.80
488  1 2.00 1.00 6.60
489  1 2.00 1.00 7.40
490  1 2.00 1.00 8.20
491  1 2.00 1.00 9.00
492  1 2.00 1.00 9.80
493  1 2.00 1.46 1.00
494  1 2.00 1.46 1.80
495  1 2.00 1.46 2.60
496  1 2.00 1.46 3.40
497  1 2.00 1.46 4.20
498  1 2.00 1.46 5.00
499  1 2.00 1.46 5.80
500  1 2.00 1.46 6.60
501  1 2.00 1.46 7.40
502  1 2.00 1.46 8.20
503  1 2.00 1.46 9.00
504  1 2.00 1.46 9.80
505  1 2.00 1.92 1.00
506  1 2.00 1.92 1.80
507  1 2.00 1.92 2.60
508  1 2.00 1.92 3.40
509  1 2.00 1.92 4.20
510  1 2.00 1.92 5.00
511  1 2.00 1.92 5.80
512  1 2.00 1.92 6.60
513  1 2.00 1.92 7.40
514  1 2.00 1.92 8.20
515  1 2.00 1.92 9.00
516  1 2.00 1.92 9.80
517  1 2.00 2.38 1.00
518  1 2.00 2.38 1.80
519  1 2.00 2.38 2.60
520  1 2.00 2.38 3.40
521  1 2.00 2.38 4.20
522  1 2.00 2.38 5.00
523  1 2.00 2.38 5.80
524  1 2.00 2.38 6.60
525  1 2.00 2.38 7.40
526  1 2.00 2.38 8.20
527  1 2.00 2.38 9.00
528  1 2.00 2.38 9.80
529  1 2.00 2.84 1.00
530  1 2.00 2.84 1.80
531  1 2.00 2.84 2.60
532  1 2.00 2.84 3.40
533  1 2.00 2.84 4.20
534  1 2.00 2.84 5.00
535  1 2.00 2.84 5.80
536  1 2.00 2.84 6.60
537  1 2.00 2.84 7.40
538  1 2.00 2.84 8.20
539  1 2.00 2.84 9.00
540  1 2.00 2.84 9.80
541  1 2.00 3.30 1.00
542  1 2.00 3.30 1.80
543  1 2.00 3.30 2.60
544  1 2.00 3.30 3.40
545  1 2.00 3.30 4.20
546  1 2.00 3.30 5.00
547  1 2.00 3.30 5.80
548  1 2.00 3.30 6.60
549  1 2.00 3.30 7.40
550  1 2.00 3.30 8.20
551  1 2.00 3.30 9.00
552  1 2.00 3.30 9.80
553  1 2.00 3.76 1.00
554  1 2.00 3.76 1.80
555  1 2.00 3.76 2.60
556  1 2.00 3.76 3.40
557  1 2.00 3.76 4.20
558  1 2.00 3.76 5.00
559  1 2.00 3.76 5.80
560  1 2.00 3.76 6.60
561  1 2.00 3.76 7.40
562  1 2.00 3.76 8.20
563  1 2.00 3.76 9.00
564  1 2.00 3.76 9.80
565  1 2.00 4.22 1.00
566  1 2.00 4.22 1.80
567  1 2.00 4.22 2.60
568  1 2.00 4.22 3.40
569  1 2.00 4.22 4.20
570  1 2.00 4.22 5.00
571  1 2.00 4.22 5.80
572  1 2.00 4.22 6.60
573  1 2.00 4.22 7.40
574  1 2.00 4.22 8.20
575  1 2.00 4.22 9.00
576  1 2.00 4.22 9.80
577  1 2.00 4.68 1.00
578  1 2.00 4.68 1.80
579  1 2.00 4.68 2.60
580  1 2.00 4.68 3.40
581  1 2.00 4.68 4.20
582  1 2.00 4.68 5.00
583  1 2.00 4.68 5.80
584  1 2.00 4.68 6.60
585  1 2.00 4.68 7.40
586  1 2.00 4.68 8.20
587  1 2.00 4.68 9.00
588  1 2.00 4.68 9.80
589  1 2.00 5.14 1.00
590  1 2.00 5.14 1.80
591  1 2.00 5.14 2.60
592  1 2.00 5.14 3.40
593  1 2.00 5.14 4.20
594  1 2.00 5.14 5.00
595  1 2.00 5.14 5.80
596  1 2.00 5.14 6.60
597  1 2.00 5.14 7.40
598  1 2.00 5.14 8.20
599  1 2.00 5.14 9.00
600  1 2.00 5.14 9.80
601  1 2.00 5.60 1.00
602  1 2.00 5.60 1.80
603  1 2.00 5.60 2.60
604  1 2.00 5.60 3.40
605  1 2.00 5.60 4.20
606  1 2.00 5.60 5.00
607  1 2.00 5.60 5.80
608  1 2.00 5.60 6.60
609  1 2.00 5.60 7.40
610  1 2.00 5.60 8.20
611  1 2.00 5.60 9.00
612  1 2.00 5.60 9.80
613  1 2.00 6.06 1.00
614  1 2.00 6.06 1.80
615  1 2.00 6.06 2.60
616  1 2.00 6.06 3.40
617  1 2.00 6.06 4.20
618  1 2.00 6.06 5.00
619  1 2.00 6.06 5.80
620  1 2.00 6.06 6.60
621  1 2.00 6.06 7.40
622  1 2.00 6.06 8.20
623  1 2.00 6.06 9.00
624  1 2.00 6.06 9.80
625  1 2.00 6.52 1.00
626  1 2.00 6.52 1.80
627  1 2.00 6.52 2.60
628  1 2.00 6.52 3.40
629  1 2.00 6.52 4.20
630  1 2.00 6.52 5.00
631  1 2.00 6.52 5.80
632  1 2.00 6.52 6.60
633  1 2.00 6.52 7.40
634  1 2.00 6.52 8.20
635  1 2.00 6.52 9.00
636  1 2.00 6.52 9.80
637  1 2.00 6.98 1.00
638  1 2.00 6.98 1.80
639  1 2.00 6.98 2.60
640  1 2.00 6.98 3.40
641  1 2.00 6.98 4.20
642  1 2.00 6.98 5.00
643  1 2.00 6.98 5.80
644  1 2.00 6.98 6.60
645  1 2.00 6.98 7.40
646  1 2.00 6.98 8.20
647  1 2.00 6.98 9.00
648  1 2.00 6.98 9.80
649  1 2.00 7.44 1.00
650  1 2.00 7.44 1.80
651  1 2.00 7.44 2.60
652  1 2.00 7.44 3.40
653  1 2.00 7.44 4.20
654  1 2.00 7.44 5.00
655  1 2.00 7.44 5.80
656  1 2.00 7.44 6.60
657  1 2.00 7.44 7.40
658  1 2.00 7.44 8.20
659  1 2.00 7.44 9.00
660  1 2.00 7.44 9.80
661  1 2.00 7.90 1.00
662  1 2.00 7.90 1.80
663  1 2.00 7.90 2.60
664  1 2.00 7.90 3.40
665  1 2.00 7.90 4.20
666  1 2.00 7.90 5.00
667  1 2.00 7.90 5.80
668  1 2.00 7.90 6.60
669  1 2.00 7.90 7.40
670  1 2.00 7.90 8.20
671  1 2.00 7.90 9.00
672  1 2.00 7.90 9.80
673  1 2.00 8.36 1.00
674  1 2.00 8.36 1.80
675  1 2.00 8.36 2.60
676  1 2.00 8.36 3.40
677  1 2.00 8.36 4.20
678  1 2.00 8.36 5.00
679  1 2.00 8.36 5.80
680  1 2.00 8.36 6.60
681  1 2.00 8.36 7.40
682  1 2.00 8.36 8.20
683  1 2.00 8.36 9.00
684  1 2.00 8.36 9.80
685  1 2.00 8.82 1.00
686  1 2.00 8.82 1.80
687  1 2.00 8.82 2.60
688  1 2.00 8.82 3.40
689  1 2.00 8.82 4.20
690  1 2.00 8.82 5.00
691  1 2.00 8.82 5.80
692  1 2.00 8.82 6.60
693  1 2.00 8.82 7.40
694  1 2.00 8.82 8.20
695  1 2.00 8.82 9.00
696  1 2.00 8.82 9.80
697  1 2.00 9.28 1.00
698  1 2.00 9.28 1.80
699  1 2.00 9.28 2.60
700  1 2.00 9.28 3.40
701  1 2.00 9.28 4.20
702  1 2.00 9.28 5.00
703  1 2.00 9.28 5.80
704  1 2.00 9.28 6.60
705  1 2.00 9.28 7.40
706  1 2.00 9.28 8.20
707  1 2.00 9.28 9.00
708  1 2.00 9.28 9.80
709  1 2.00 9.74 1.00
710  1 2.00 9.74 1.80
711  1 2.00 9.74 2.60
712  1 2.00 9.74 3.40
713  1 2.00 9.74 4.20
714  1 2.00 9.74 5.00
715  1 2.00 9.74 5.80
716  1 2.00 9.74 6.60
717  1 2.00 9.74 7.40
718  1 2.00 9.74 8.20
719  1 2.00 9.74 9.00
720  1 2.00 9.74 9.80
721  1 2.50 1.00 1.00
722  1 2.50 1.00 1.80
723  1 2.50 1.00 2.60
724  1 2.50 1.00 3.40
725  1 2.50 1.00 4.20
726  1 2.50 1.00 5.00
727  1 2.50 1.00 5.80
728  1 2.50 1.00 6.60
729  1 2.50 1.00 7.40
730  1 2.50 1.00 8.20
731  1 2.50 1.00 9.00
732  1 2.50 1.00 9.80
733  1 2.50 1.46 1.00
734  1 2.50 1.46 1.80
735  1 2.50 1.46 2.60
736  1 2.50 1.46 3.40
737  1 2.50 1.46 4.20
738  1 2.50 1.46 5.00
739  1 2.50 1.46 5.80
740  1 2.50 1.46 6.60
741  1 2.50 1.46 7.40
742  1 2.50 1.46 8.20
743  1 2.50 1.46 9.00
744  1 2.50 1.46 9.80
745  1 2.50 1.92 1.00
746  1 2.50 1.92 1.80
747  1 2.50 1.92 2.60
748  1 2.50 1.92 3.40
749  1 2.50 1.92 4.20
750  1 2.50 1.92 5.00
751  1 2.50 1.92 5.80
752  1 2.50 1.92 6.60
753  1 2.50 1.92 7.40
754  1 2.50 1.92 8.20
755  1 2.50 1.92 9.00
756  1 2.50 1.92 9.80
757  1 2.50 2.38 1.00
758  1 2.50 2.38 1.80
759  1 2.50 2.38 2.60
760  1 2.50 2.38 3.40
761  1 2.50 2.38 4.20
762  1 2.50 2.38 5.00
763  1 2.50 2.38 5.80
764  1 2.50 2.38 6.60
765  1 2.50 2.38 7.40
766  1 2.50 2.38 8.20
767  1 2.50 2.38 9.00
768  1 2.50 2.38 9.80
769  1 2.50 2.84 1.00
770  1 2.50 2.84 1.80
771  1 2.50 2.84 2.60
772  1 2.50 2.84 3.40
773  1 2.50 2.84 4.20
774  1 2.50 2.84 5.00
775  1 2.50 2.84 5.80
776  1 2.50 2.84 6.60
777  1 2.50 2.84 7.40
778  1 2.50 2.84 8.20
779  1 2.50 2.84 9.00
780  1 2.50 2.84 9.80
781  1 2.50 3.30 1.00
782  1 2.50 3.30 1.80
783  1 2.50 3.30 2.60
784  1 2.50 3.30 3.40
785  1 2.50 3.30 4.20
786  1 2.50 3.30 5.00
787  1 2.50 3.30 5.80
788  1 2.50 3.30 6.60
789  1 2.50 3.30 7.40
790  1 2.50 3.30 8.20
791  1 2.50 3.30 9.00
792  1 2.50 3.30 9.80
793  1 2.50 3.76 1.00
794  1 2.50 3.76 1.80
795  1 2.50 3.76 2.60
796  1 2.50 3.76 3.40
797  1 2.50 3.76 4.20
798  1 2.50 3.76 5.00
799  1 2.50 3.76 5.80
800  1 2.50 3.76 6.60
801  1 2.50 3.76 7.40
802  1 2.50 3.76 8.20
803  1 2.50 3.76 9.00
804  1 2.50 3.76 9.80
805  1 2.50 4.22 1.00
806  1 2.50 4.22 1.80
807  1 2.50 4.22 2.60
808  1 2.50 4.22 3.40
809  1 2.50 4.22 4.20
810  1 2.50 4.22 5.00
811  1 2.50 4.22 5.80
812  1 2.50 4.22 6.60
813  1 2.50 4.22 7.40
814  1 2.50 4.22 8.20
815  1 2.50 4.22 9.00
816  1 2.50 4.22 9.80
817  1 2.50 4.68 1.00
818  1 2.50 4.68 1.80
819  1 2.50 4.68 2.60
820  1 2.50 4.68 3.40
821  1 2.50 4.68 4.20
822  1 2.50 4.68 5.00
823  1 2.50 4.68 5.80
824  1 2.50 4.68 6.60
825  1 2.50 4.68 7.40
826  1 2.50 4.68 8.20
827  1 2.50 4.68 9.00
828  1 2.50 4.68 9.80
829  1 2.50 5.14 1.00
830  1 2.50 5.14 1.80
831  1 2.50 5.14 2.60
832  1 2.50 5.14 3.40
833  1 2.50 5.14 4.20
834  1 2.50 5.14 5.00
835  1 2.50 5.14 5.80
836  1 2.50 5.14 6.60
837  1 2.50 5.14 7.40
838  1 2.50 5.14 8.20
839  1 2.50 5.14 9.00
840  1 2.50 5.14 9.80
841  1 2.50 5.60 1.00
842  1 2.50 5.60 1.80
843  1 2.50 5.60 2.60
844  1 2.50 5.60 3.40
845  1 2.50 5.60 4.20
846  1 2.50 5.60 5.00
847  1 2.50 5.60 5.80
848  1 2.50 5.60 6.60
849  1 2.50 5.60 7.40
850  1 2.50 5.60 8.20
851  1 2.50 5.60 9.00
852  1 2.50 5.60 9.80
853  1 2.50 6.06 1.00
854  1 2.50 6.06 1.80
855  1 2.50 6.06 2.60
856  1 2.50 6.06 3.40
857  1 2.50 6.06 4.20
858  1 2.50 6.06 5.00
859  1 2.50 6.06 5.80
860  1 2.50 6.06 6.60
861  1 2.50 6.06 7.40
862  1 2.50 6.06 8.20
863  1 2.50 6.06 9.00
864  1 2.50 6.06 9.80
865  1 2.50 6.52 1.00
866  1 2.50 6.52 1.80
867  1 2.50 6.52 2.60
868  1 2.50 6.52 3.40
869  1 2.50 6.52 4.20
870  1 2.50 6.52 5.00
871  1 2.50 6.52 5.80
872  1 2.50 6.52 6.60
873  1 2.50 6.52 7.40
874  1 2.50 6.52 8.20
875  1 2.50 6.52 9.00
876  1 2.50 6.52 9.80
877  1 2.50 6.98 1.00
878  1 2.50 6.98 1.80
879  1 2.50 6.98 2.60
880  1 2.50 6.98 3.40
881  1 2.50 6.98 4.20
882  1 2.50 6.98 5.00
883  1 2.50 6.98 5.80
884  1 2.50 6.98 6.60
885  1 2.50 6.98 7.40
886  1 2.50 6.98 8.20
887  1 2.50 6.98 9.00
888  1 2.50 6.98 9.80
889  1 2.50 7.44 1.00
890  1 2.50 7.44 1.80
891  1 2.50 7.44 2.60
892  1 2.50 7.44 3.40
893  1 2.50 7.44 4.20
894  1 2.50 7.44 5.00
895  1 2.50 7.44 5.80
896  1 2.50 7.44 6.60
897  1 2.50 7.44 7.40
898  1 2.50 7.44 8.20
899  1 2.50 7.44 9.00
900  1 2.50 7.44 9.80
901  1 2.50 7.90 1.00
902  1 2.50 7.90 1.80
903  1 2.50 7.90 2.60
904  1 2.50 7.90 3.40
905  1 2.50 7.90 4.20
906  1 2.50 7.90 5.00
907  1 2.50 7.90 5.80
908  1 2.50 7.90 6.60
909  1 2.50 7.90 7.40
910  1 2.50 7.90 8.20
911  1 2.50 7.90 9.00
912  1 2.50 7.90 9.80
913  1 2.50 8.36 1.00
914  1 2.50 8.36 1.80
915  1 2.50 8.36 2.60
916  1 2.50 8.36 3.40
917  1 2.50 8.36 4.20
918  1 2.50 8.36 5.00
919  1 2.50 8.36 5.80
920  1 2.50 8.36 6.60
921  1 2.50 8.36 7.40
922  1 2.50 8.36 8.20
923  1 2.50 8.36 9.00
924  1 2.50 8.36 9.80
925  1 2.50 8.82 1.00
926  1 2.50 8.82 1.80
927  1 2.50 8.82 2.60
928  1 2.50 8.82 3.40
929  1 2.50 8.82 4.20
930  1 2.50 8.82 5.00
931  1 2.50 8.82 5.80
932  1 2.50 8.82 6.60
933  1 2.50 8.82 7.40
934  1 2.50 8.82 8.20
935  1 2.50 8.82 9.00
936  1 2.50 8.82 9.80
937  1 2.50 9.28 1.00
938  1 2.50 9.28 1.80
939  1 2.50 9.28 2.60
940  1 2.50 9.28 3.40
941  1 2.50 9.28 4.20
942  1 2.50 9.28 5.00
943  1 2.50 9.28 5.80
944  1 2.50 9.28 6.60
945  1 2.50 9.28 7.40
946  1 2.50 9.28 8.20
947  1 2.50 9.28 9.00
948  1 2.50 9.28 9.80
949  1 2.50 9.74 1.00
950  1 2.50 9.74 1.80
951  1 2.50 9.74 2.60
952  1 2.50 9.74 3.40
953  1 2.50 9.74 4.20
954  1 2.50 9.74 5.00
955  1 2.50 9.74 5.80
956  1 2.50 9.74 6.60
957  1 2.50 9.74 7.40
958  1 2.50 9.74 8.20
959  1 2.50 9.74 9.00
960  1 2.50 9.74 9.80
961  1 3.00 1.00 1.00
962  1 3.00 1.00 1.80
963  1 3.00 1.00 2.60
964  1 3.00 1.00 3.40
965  1 3.00 1.00 4.20
966  1 3.00 1.00 5.00
967  1 3.00 1.00 5.80
968  1 3.00 1.00 6.60
969  1 3.00 1.00 7.40
970  1 3.00 1.00 8.20
971  1 3.00 1.00 9.00
972  1 3.00 1.00 9.80
973  1 3.00 1.46 1.00
974  1 3.00 1.46 1.80
975  1 3.00 1.46 2.60
976  1 3.00 1.46 3.40
977  1 3.00 1.46 4.20
978  1 3.00 1.46 5.00
979  1 3.00 1.46 5.80
980  1 3.00 1.46 6.60
981  1 3.00 1.46 7.40
982  1 3.00 1.46 8.20
983  1 3.00 1.46 9.00
984  1 3.00 1.46 9.80
985  1 3.00 1.92 1.00
986  1 3.00 1.92 1.80
987  1 3.00 1.92 2.60
988  1 3.00 1.92 3.40
989  1 3.00 1.92 4.20
990  1 3.00 1.92 5.00
991  1 3.00 1.92 5.80
992  1 3.00 1.92 6.60
993  1 3.00 1.92 7.40
994  1 3.00 1.92 8.20
995  1 3.00 1.92 9.00
996  1 3.00 1.92 9.80
997  1 3.00 2.38 1.00
998  1 3.00 2.38 1.80
999  1 3.00 2.38 2.60
1000  1 3.00 2.38 3.40
1001  1 3.00 2.38 4.20
1002  1 3.00 2.38 5.00
1003  1 3.00 2.38 5.80
1004  1 3.00 2.38 6.60
1005  1 3.00 2.38 7.40
1006  1 3.00 2.38 8.20
1007  1 3.00 2.38 9.00
1008  1 3.00 2.38 9.80
1009  1 3.00 2.84 1.00
1010  1 3.00 2.84 1.80
1011  1 3.00 2.84 2.60
1012  1 3.00 2.84 3.40
1013  1 3.00 2.84 4.20
1014  1 3.00 2.84 5.00
1015  1 3.00 2.84 5.80
1016  1 3.00 2.84 6.60
1017  1 3.00 2.84 7.40
1018  1 3.00 2.84 8.20
1019  1 3.00 2.84 9.00
1020  1 3.00 2.84 9.80
1021  1 3.00 3.30 1.00
1022  1 3.00 3.30 1.80
1023  1 3.00 3.30 2.60
1024  1 3.00 3.30 3.40
1025  1 3.00 3.30 4.20
1026  1 3.00 3.30 5.00
1027  1 3.00 3.30 5.80
1028  1 3.00 3.30 6.60
1029  1 3.00 3.30 7.40
1030  1 3.00 3.30 8.20
1031  1 3.00 3.30 9.00
1032  1 3.00 3.30 9.80
1033  1 3.00 3.76 1.00
1034  1 3.00 3.76 1.80
1035  1 3.00 3.76 2.60
1036  1 3.00 3.76 3.40
1037  1 3.00 3.76 4.20
1038  1 3.00 3.76 5.00
1039  1 3.00 3.76 5.80
1040  1 3.00 3.76 6.60
1041  1 3.00 3.76 7.40
1042  1 3.00 3.76 8.20
1043  1 3.00 3.76 9.00
1044  1 3.00 3.76 9.80
1045  1 3.00 4.22 1.00
1046  1 3.00 4.22 1.80
1047  1 3.00 4.22 2.60
1048  1 3.00 4.22 3.40
1049  1 3.00 4.22 4.20
1050  1 3.00 4.22 5.00
1051  1 3.00 4.22 5.80
1052  1 3.00 4.22 6.60
1053  1 3.00 4.22 7.40
1054  1 3.00 4.22 8.20
1055  1 3.00 4.22 9.00
1056  1 3.00 4.22 9.80
1057  1 3.00 4.68 1.00
1058  1 3.00 4.68 1.80
1059  1 3.00 4.68 2.60
1060  1 3.00 4.68 3.40
1061  1 3.00 4.68 4.20
1062  1 3.00 4.68 5.00
1063  1 3.00 4.68 5.80
1064  1 3.00 4.68 6.60
1065  1 3.00 4.68 7.40
1066  1 3.00 4.68 8.20
1067  1 3.00 4.68 9.00
1068  1 3.00 4.68 9.80
1069  1 3.00 5.14 1.00
1070  1 3.00 5.14 1.80
1071  1 3.00 5.14 2.60
1072  1 3.00 5.14 3.40
1073  1 3.00 5.14 4.20
1074  1 3.00 5.14 5.00
1075  1 3.00 5.14 5.80
1076  1 3.00 5.14 6.60
1077  1 3.00 5.14 7.40
1078  1 3.00 5.14 8.20
1079  1 3.00 5.14 9.00
1080  1 3.00 5.14 9.80
1081  1 3.00 5.60 1.00
1082  1 3.00 5.60 1.80
1083  1 3.00 5.60 2.60
1084  1 3.00 5.60 3.40
1085  1 3.00 5.60 4.20
1086  1 3.00 5.60 5.00
1087  1 3.00 5.60 5.80
1088  1 3.00 5.60 6.60
1089  1 3.00 5.60 7.40
1090  1 3.00 5.60 8.20
1091  1 3.00 5.60 9.00
1092  1 3.00 5.60 9.80
1093  1 3.00 6.06 1.00
1094  1 3.00 6.06 1.80
1095  1 3.00 6.06 2.60
1096  1 3.00 6.06 3.40
1097  1 3.00 6.06 4.20
1098  1 3.00 6.06 5.00
1099  1 3.00 6.06 5.80
1100  1 3.00 6.06 6.60
1101  1 3.00 6.06 7.40
1102  1 3.00 6.06 8.20
1103  1 3.00 6.06 9.00
1104  1 3.00 6.06 9.80
1105  1 3.00 6.52 1.00
1106  1 3.00 6.52 1.80
1107  1 3.00 6.52 2.60
1108  1 3.00 6.52 3.40
1109  1 3.00 6.52 4.20
1110  1 3.00 6.52 5.00
1111  1 3.00 6.52 5.80
1112  1 3.00 6.52 6.60
1113  1 3.00 6.52 7.40
1114  1 3.00 6.52 8.20
1115  1 3.00 6.52 9.00
1116  1 3.00 6.52 9.80
1117  1 3.00 6.98 1.00
1118  1 3.00 6.98 1.80
1119  1 3.00 6.98 2.60
1120  1 3.00 6.98 3.40
1121  1 3.00 6.98 4.20
1122  1 3.00 6.98 5.00
1123  1 3.00 6.98 5.80
1124  1 3.00 6.98 6.60
1125  1 3.00 6.98 7.40
1126  1 3.00 6.98 8.20
1127  1 3.00 6.98 9.00
1128  1 3.00 6.98 9.80
1129  1 3.00 7.44 1.00
1130  1 3.00 7.44 1.80
1131  1 3.00 7.44 2.60
1132  1 3.00 7.44 3.40
1133  1 3.00 7.44 4.20
1134  1 3.00 7.44 5.00
1135  1 3.00 7.44 5.80
1136  1 3.00 7.44 6.60
1137  1 3.00 7.44 7.40
1138  1 3.00 7.44 8.20
1139  1 3.00 7.44 9.00
1140  1 3.00 7.44 9.80
1141  1 3.00 7.90 1.00
1142  1 3.00 7.90 1.80
1143  1 3.00 7.90 2.60
1144  1 3.00 7.90 3.40
1145  1 3.00 7.90 4.20
1146  1 3.00 7.90 5.00
1147  1 3.00 7.90 5.80
1148  1 3.00 7.90 6.60
1149  1 3.00 7.90 7.40
1150  1 3.00 7.90 8.20
1151  1 3.00 7.90 9.00
1152  1 3.00 7.90 9.80
1153  1 3.00 8.36 1.00
1154  1 3.00 8.36 1.80
1155  1 3.00 8.36 2.60
1156  1 3.00 8.36 3.40
1157  1 3.00 8.36 4.20
1158  1 3.00 8.36 5.00
1159  1 3.00 8.36 5.80
1160  1 3.00 8.36 6.60
1161  1 3.00 8.36 7.40
1162  1 3.00 8.36 8.20
1163  1 3.00 8.36 9.00
1164  1 3.00 8.36 9.80
1165  1 3.00 8.82 1.00
1166  1 3.00 8.82 1.80
1167  1 3.00 8.82 2.60
1168  1 3.00 8.82 3.40
1169  1 3.00 8.82 4.20
1170  1 3.00 8.82 5.00
1171  1 3.00 8.82 5.80
1172  1 3.00 8.82 6.60
1173  1 3.00 8.82 7.40
1174  1 3.00 8.82 8.20
1175  1 3.00 8.82 9.00
1176  1 3.00 8.82 9.80
1177  1 3.00 9.28 1.00
1178  1 3.00 9.28 1.80
1179  1 3.00 9.28 2.60
1180  1 3.00 9.28 3.40
1181  1 3.00 9.28 4.20
1182  1 3.00 9.28 5.00
1183  1 3.00 9.28 5.80
1184  1 3.00 9.28 6.60
1185  1 3.00 9.28 7.40
1186  1 3.00 9.28 8.20
1187  1 3.00 9.28 9.00
1188  1 3.00 9.28 9.80
1189  1 3.00 9.74 1.00
1190  1 3.00 9.74 1.80
1191  1 3.00 9.74 2.60
1192  1 3.00 9.74 3.40
1193  1 3.00 9.74 4.20
1194  1 3.00 9.74 5.00
1195  1 3.00 9.74 5.80
1196  1 3.00 9.74 6.60
1197  1 3.00 9.74 7.40
1198  1 3.00 9.74 8.20
1199  1 3.00 9.74 9.00
1200  1 3.00 9.74 9.80
1201  1 3.50 1.00 1.00
1202  1 3.50 1.00 1.80
1203  1 3.50 1.00 2.60
1204  1 3.50 1.00 3.40
1205  1 3.50 1.00 4.20
1206  1 3.50 1.00 5.00
1207  1 3.50 1.00 5.80
1208  1 3.50 1.00 6.60
1209  1 3.50 1.00 7.40
1210  1 3.50 1.00 8.20
1211  1 3.50 1.00 9.00
1212  1 3.50 1.00 9.80
1213  1 3.50 1.46 1.00
1214  1 3.50 1.46 1.80
1215  1 3.50 1.46 2.60
1216  1 3.50 1.46 3.40
1217  1 3.50 1.46 4.20
1218  1 3.50 1.46 5.00
1219  1 3.50 1.46 5.80
1220  1 3.50 1.46 6.60
1221  1 3.50 1.46 7.40
1222  1 3.50 1.46 8.20
1223  1 3.50 1.46 9.00
1224  1 3.50 1.46 9.80
1225  1 3.50 1.92 1.00
1226  1 3.50 1.92 1.80
1227  1 3.50 1.92 2.60
1228  1 3.50 1.92 3.40
1229  1 3.50 1.92 4.20
1230  1 3.50 1.92 5.00
1231  1 3.50 1.92 5.80
1232  1 3.50 1.92 6.60
1233  1 3.50 1.92 7.40
1234  1 3.50 1.92 8.20
1235  1 3.50 1.92 9.00
1236  1 3.50 1.92 9.80
1237  1 3.50 2.38 1.00
1238  1 3.50 2.38 1.80
1239  1 3.50 2.38 2.60
1240  1 3.50 2.38 3.40
1241  1 3.50 2.38 4.20
1242  1 3.50 2.38 5.00
1243  1 3.50 2.38 5.80
1244  1 3.50 2.38 6.60
1245  1 3.50 2.38 7.40
1246  1 3.50 2.38 8.20
1247  1 3.50 2.38 9.00
1248  1 3.50 2.38 9.80
1249  1 3.50 2.84 1.00
1250  1 3.50 2.84 1.80
1251  1 3.50 2.84 2.60
1252  1 3.50 2.84 3.40
1253  1 3.50 2.84 4.20
1254  1 3.50 2.84 5.00
1255  1 3.50 2.84 5.80
1256  1 3.50 2.84 6.60
1257  1 3.50 2.84 7.40
1258  1 3.50 2.84 8.20
1259  1 3.50 2.84 9.00
1260  1 3.50 2.84 9.80
1261  1 3.50 3.30 1.00
1262  1 3.50 3.30 1.80
1263  1 3.50 3.30 2.60
1264  1 3.50 3.30 3.40
1265  1 3.50 3.30 4.20
1266  1 3.50 3.30 5.00
1267  1 3.50 3.30 5.80
1268  1 3.50 3.30 6.60
1269  1 3.50 3.30 7.40
1270  1 3.50 3.30 8.20
1271  1 3.50 3.30 9.00
1272  1 3.50 3.30 9.80
1273  1 3.50 3.76 1.00
1274  1 3.50 3.76 1.80
1275  1 3.50 3.76 2.60
1276  1 3.50 3.76 3.40
1277  1 3.50 3.76 4.20
1278  1 3.50 3.76 5.00
1279  1 3.50 3.76 5.80
1280  1 3.50 3.76 6.60
1281  1 3.50 3.76 7.40
1282  1 3.50 3.76 8.20
1283  1 3.50 3.76 9.00
1284  1 3.50 3.76 9.80
1285  1 3.50 4.22 1.00
1286  1 3.50 4.22 1.80
1287  1 3.50 4.22 2.60
1288  1 3.50 4.22 3.40
1289  1 3.50 4.22 4.20
1290  1 3.50 4.22 5.00
1291  1 3.50 4.22 5.80